[
  {
    "atomicNumber": 1,
    "symbol": "H",
    "name": "Hydrogen",
    "atomicMass": 1.008,
    "category": "nonmetal",
    "state": "gas",
    "electronConfiguration": "1s1",
    "electronegativity": 2.2,
    "ionizationEnergy": 13.6,
    "atomicRadius": 53,
    "density": 0.00008988,
    "meltingPoint": 14.01,
    "boilingPoint": 20.28,
    "yearDiscovered": 1766,
    "description": "Hydrogen is the lightest element and most abundant chemical substance in the Universe."
  },
  {
    "atomicNumber": 2,
    "symbol": "He",
    "name": "Helium",
    "atomicMass": 4.0026,
    "category": "noble-gas",
    "state": "gas",
    "electronConfiguration": "1s2",
    "electronegativity": null,
    "ionizationEnergy": 24.6,
    "atomicRadius": 31,
    "density": 0.0001785,
    "meltingPoint": 0.95,
    "boilingPoint": 4.22,
    "yearDiscovered": 1868,
    "description": "Helium is a colorless, odorless, tasteless, non-toxic, inert, monatomic gas."
  },
  {
    "atomicNumber": 3,
    "symbol": "Li",
    "name": "Lithium",
    "atomicMass": 6.94,
    "category": "alkali-metal",
    "state": "solid",
    "electronConfiguration": "[He] 2s1",
    "electronegativity": 0.98,
    "ionizationEnergy": 5.39,
    "atomicRadius": 167,
    "density": 0.534,
    "meltingPoint": 453.65,
    "boilingPoint": 1603,
    "yearDiscovered": 1817,
    "description": "Lithium is a soft, silvery-white alkali metal that is highly reactive."
  },
  {
    "atomicNumber": 4,
    "symbol": "Be",
    "name": "Beryllium",
    "atomicMass": 9.0122,
    "category": "alkaline-earth-metal",
    "state": "solid",
    "electronConfiguration": "[He] 2s2",
    "electronegativity": 1.57,
    "ionizationEnergy": 9.32,
    "atomicRadius": 112,
    "density": 1.85,
    "meltingPoint": 1560,
    "boilingPoint": 2742,
    "yearDiscovered": 1798,
    "description": "Beryllium is a relatively rare element in the universe, usually occurring as a product of the spallation of larger atomic nuclei."
  },
  {
    "atomicNumber": 5,
    "symbol": "B",
    "name": "Boron",
    "atomicMass": 10.81,
    "category": "metalloid",
    "state": "solid",
    "electronConfiguration": "[He] 2s2 2p1",
    "electronegativity": 2.04,
    "ionizationEnergy": 8.30,
    "atomicRadius": 87,
    "density": 2.34,
    "meltingPoint": 2349,
    "boilingPoint": 4200,
    "yearDiscovered": 1808,
    "description": "Boron is a chemical element with properties between those of carbon and aluminum."
  },
  {
    "atomicNumber": 6,
    "symbol": "C",
    "name": "Carbon",
    "atomicMass": 12.011,
    "category": "nonmetal",
    "state": "solid",
    "electronConfiguration": "[He] 2s2 2p2",
    "electronegativity": 2.55,
    "ionizationEnergy": 11.26,
    "atomicRadius": 67,
    "density": 2.267,
    "meltingPoint": 3823,
    "boilingPoint": 4098,
    "yearDiscovered": -3750,
    "description": "Carbon is the 15th most abundant element in the Earth's crust, and the fourth most abundant element in the universe by mass."
  },
  {
    "atomicNumber": 7,
    "symbol": "N",
    "name": "Nitrogen",
    "atomicMass": 14.007,
    "category": "nonmetal",
    "state": "gas",
    "electronConfiguration": "[He] 2s2 2p3",
    "electronegativity": 3.04,
    "ionizationEnergy": 14.53,
    "atomicRadius": 56,
    "density": 0.001251,
    "meltingPoint": 63.15,
    "boilingPoint": 77.36,
    "yearDiscovered": 1772,
    "description": "Nitrogen is a colorless, odorless, tasteless gas that is the most common element in Earth's atmosphere."
  },
  {
    "atomicNumber": 8,
    "symbol": "O",
    "name": "Oxygen",
    "atomicMass": 15.999,
    "category": "nonmetal",
    "state": "gas",
    "electronConfiguration": "[He] 2s2 2p4",
    "electronegativity": 3.44,
    "ionizationEnergy": 13.62,
    "atomicRadius": 48,
    "density": 0.001429,
    "meltingPoint": 54.36,
    "boilingPoint": 90.20,
    "yearDiscovered": 1774,
    "description": "Oxygen is a highly reactive nonmetal and oxidizing agent that readily forms oxides with most elements."
  },
  {
    "atomicNumber": 9,
    "symbol": "F",
    "name": "Fluorine",
    "atomicMass": 18.998,
    "category": "halogen",
    "state": "gas",
    "electronConfiguration": "[He] 2s2 2p5",
    "electronegativity": 3.98,
    "ionizationEnergy": 17.42,
    "atomicRadius": 42,
    "density": 0.001696,
    "meltingPoint": 53.53,
    "boilingPoint": 85.03,
    "yearDiscovered": 1886,
    "description": "Fluorine is the lightest halogen and exists as a highly toxic pale yellow diatomic gas at standard conditions."
  },
  {
    "atomicNumber": 10,
    "symbol": "Ne",
    "name": "Neon",
    "atomicMass": 20.18,
    "category": "noble-gas",
    "state": "gas",
    "electronConfiguration": "[He] 2s2 2p6",
    "electronegativity": null,
    "ionizationEnergy": 21.56,
    "atomicRadius": 38,
    "density": 0.0008999,
    "meltingPoint": 24.56,
    "boilingPoint": 27.07,
    "yearDiscovered": 1898,
    "description": "Neon is a colorless, odorless, inert monatomic gas under standard conditions, with about two-thirds the density of air."
  }
]
